62
Lattice="3.345077372089232 -0.26761049246753765 0.29038529539348346 -0.4048623481527726 12.32624794279364 -1.1100009563114186 1.9338115807521705 4.381025507987908 13.062244284172753" Properties=species:S:1:pos:R:3:masses:R:1:forces:R:3 energy=-6112.8536957753795 label=926 n_visit=1 phase=1 pbc="T T T"
C        0.40701488       5.79596683      -0.27179532      12.01100000       0.00071141      -0.00061150       0.00068495
C        3.69501049       8.63289037       5.94446258      12.01100000       0.00171771       0.00079203       0.00074162
H        0.57636837       5.85501421       0.81856335       1.00800000      -0.00108685      -0.00059679      -0.00044146
H        3.55323906       8.70047590       4.85044881       1.00800000      -0.00013452      -0.00048379       0.00062215
N        0.06730906       6.83529624      -0.95233834      14.00700000       0.00258216       0.00092456      -0.00224452
N        3.45448209       7.54978599       6.59926778      14.00700000       0.00092683       0.00051892      -0.00061816
C        1.11086111       1.90983087      -1.91555137      12.01100000      -0.00112134      -0.00031849       0.00219934
C        5.07550960      12.28693085       7.69492885      12.01100000       0.00103428      -0.00117682       0.00043531
C       -0.48453827      10.60662777       0.89670156      12.01100000      -0.00006091      -0.00055439       0.00315488
C        2.26379289       3.91337367       4.77048990      12.01100000      -0.00033798       0.00156722       0.00046618
C        0.87998735       3.01038878      -2.76051414      12.01100000      -0.00083706       0.00101737      -0.00247467
C        4.77442968      11.18304450       8.50918313      12.01100000      -0.00076326       0.00003052      -0.00244570
C       -0.76862598       9.43350618       1.60560395      12.01100000       0.00002258      -0.00088828      -0.00130279
C        2.83131716       4.93531039       3.99619417      12.01100000       0.00026069       0.00168445      -0.00001630
C        0.62882193       4.27049754      -2.24147432      12.01100000      -0.00015574       0.00056084       0.00128498
C        4.33692393       9.98866184       7.95420055      12.01100000       0.00039030      -0.00031927       0.00346005
C       -0.60309566       8.18280162       1.02498379      12.01100000      -0.00038956      -0.00058764       0.00100039
C        3.23336246       6.14089279       4.55421371      12.01100000       0.00062300       0.00053936       0.00009088
C        0.61826221       4.48008317      -0.85452638      12.01100000      -0.00080378       0.00119152      -0.00222721
C        4.17160251       9.85839951       6.56560141      12.01100000       0.00251125       0.00015519      -0.00299198
C       -0.13435108       8.05965147      -0.29563573      12.01100000       0.00091918       0.00025260      -0.00232850
C        3.06315515       6.37991283       5.92913926      12.01100000      -0.00003997      -0.00009942      -0.00191720
C        0.86929876       3.38792453      -0.01038389      12.01100000      -0.00156243      -0.00109429       0.00182240
C        4.48182728      10.95791548       5.75235060      12.01100000       0.00042021       0.00050848       0.00265538
C        0.10927282       9.23372646      -1.01919096      12.01100000      -0.00035724      -0.00019748       0.00048943
C        2.49350340       5.35782873       6.70479930      12.01100000      -0.00092217      -0.00000332       0.00244869
C        1.10329322       2.12127061      -0.53362263      12.01100000      -0.00220449      -0.00084932      -0.00138107
C        4.94580300      12.14468014       6.30931456      12.01100000      -0.00005040       0.00026061      -0.00185311
C       -0.05406810      10.47967951      -0.42826176      12.01100000       0.00079151       0.00142285      -0.00116291
C        2.09812304       4.15242032       6.13705562      12.01100000      -0.00057471      -0.00120197      -0.00034530
C        1.32755761       0.53819826      -2.48842200      12.01100000      -0.00130805       0.00052167      -0.00004268
C        5.48757972      13.60064905       8.29311544      12.01100000      -0.00061057      -0.00106253      -0.00055355
C       -0.66018291      11.95833638       1.53183279      12.01100000       0.00040297       0.00066286       0.00029576
C        1.90877416       2.59172579       4.15344839      12.01100000       0.00082685       0.00071016      -0.00001524
H        0.91576843       2.87880693      -3.84415212       1.00800000      -0.00002743      -0.00012204      -0.00046185
H        4.88041394      11.26497204       9.59321974       1.00800000      -0.00264229       0.00060997       0.00058964
H       -1.13622616       9.50250493       2.63060290       1.00800000      -0.00048286      -0.00148513       0.00043928
H        2.97526778       4.76712634       2.92715666       1.00800000       0.00164796      -0.00058406      -0.00080401
H        0.46266840       5.12107706      -2.89753719       1.00800000      -0.00060505       0.00059398       0.00052109
H        4.12423734       9.12880193       8.58436404       1.00800000       0.00037231      -0.00021152      -0.00173816
H       -0.86331350       7.29099193       1.59293348       1.00800000      -0.00202110       0.00135444       0.00389240
H        3.70586841       6.88797792       3.91905354       1.00800000       0.00291703      -0.00051968      -0.00090618
H        0.88381739       3.54351388       1.06989888       1.00800000       0.00038103       0.00092358      -0.00084192
H        4.36773497      10.86909244       4.67122512       1.00800000      -0.00078965       0.00110651      -0.00076290
H        0.45302642       9.14209565      -2.04678748       1.00800000       0.00224076       0.00024872      -0.00109176
H        2.35575107       5.54207696       7.76813088       1.00800000       0.00097712       0.00011638       0.00067945
H        1.30836365       1.28771918       0.13810317       1.00800000       0.00144661      -0.00091388      -0.00076439
H        5.20011427      12.98324562       5.66148407       1.00800000      -0.00301791      -0.00012815       0.00192985
H        0.15856068      11.37853744      -1.00745581       1.00800000       0.00182241      -0.00062987       0.00015336
H        1.64846047       3.38438249       6.76615209       1.00800000       0.00167766       0.00019864       0.00020281
H        1.80127030      -0.13622085      -1.76428961       1.00800000      -0.00226794      -0.00051221       0.00065778
H        4.60780468      14.22068253       8.52355464       1.00800000      -0.00101152      -0.00253815      -0.00024239
H       -0.31105982      11.97530681       2.57362424       1.00800000      -0.00052087      -0.00108542       0.00172623
H        1.48044695       2.71075629       3.14930545       1.00800000       0.00144843       0.00057056      -0.00082574
H        0.37003541       0.07850191      -2.77561505       1.00800000      -0.00168137       0.00108401       0.00105477
H        6.02977955      13.46070569       9.23511106       1.00800000      -0.00122780      -0.00087382      -0.00020483
H       -1.72258464      12.25036211       1.56023130       1.00800000      -0.00053769      -0.00282079      -0.00128085
H        1.19343219       2.03475656       4.77034002       1.00800000       0.00016825       0.00131906      -0.00026095
H        1.94168709       0.57095512      -3.39781150       1.00800000      -0.00093496       0.00063951       0.00046771
H        6.11588988      14.18304941       7.60735426       1.00800000      -0.00092516       0.00035751       0.00126873
H       -0.13571259      12.74445361       0.97408863       1.00800000       0.00176520      -0.00157127      -0.00067354
H        2.79876924       1.95613631       4.03970944       1.00800000       0.00083589       0.00157156      -0.00003455
62
Lattice="6.949794711026041 0.0420333428912074 -0.01136541309990287 -0.13928284904636717 6.890692655188518 0.3014944715979515 -2.93102105013238 -0.5582629748336472 12.05369247328688" Properties=species:S:1:pos:R:3:masses:R:1:forces:R:3 energy=-6112.600797580806 label=325 n_visit=1 phase=1 pbc="T T T"
N        0.37315509       1.05196388       9.49239755      14.00700000      -0.00055015       0.00088277       0.00293616
N        3.50068589       4.82880943       2.81834743      14.00700000       0.00180564       0.00131033       0.00631999
C        3.34810092       1.76992386       6.56590035      12.01100000       0.00031269      -0.00056766       0.00202506
C        0.50896702       5.18909848       5.78898652      12.01100000      -0.00308503      -0.00180252      -0.00128528
C        3.69102357       1.16382131       7.78332056      12.01100000      -0.00192174      -0.00058207       0.00208072
C        0.18497715       4.68170950       4.52508890      12.01100000      -0.00132599       0.00012441       0.00213828
C        2.73377556       0.92423164       8.76390435      12.01100000      -0.00008737      -0.00116836       0.00076219
C        1.14863344       4.56610415       3.52528961      12.01100000      -0.00063213      -0.00003582       0.00109299
C        1.39051060       1.28463109       8.55734566      12.01100000      -0.00132910      -0.00097003       0.00055772
C        2.47562342       4.95684718       3.76443306      12.01100000       0.00215589       0.00178193       0.00110858
C        1.04222069       1.86487597       7.32949301      12.01100000      -0.00161288      -0.00128620       0.00031552
C        2.80523814       5.44963057       5.03718341      12.01100000      -0.00034671      -0.00241236      -0.00067368
C        2.00684016       2.11408276       6.36094324      12.01100000      -0.00159468      -0.00018846       0.00133784
C        1.83658743       5.57630193       6.02172066      12.01100000      -0.00047670      -0.00193300       0.00199199
C        0.62154629       1.16781326      10.75259567      12.01100000       0.00062555      -0.00010018      -0.00146322
C        3.25533557       5.04936405       1.57213656      12.01100000      -0.00049117       0.00200609      -0.00535059
C       -0.37648156       0.88095012      11.77544888      12.01100000       0.00118824       0.00079375      -0.00097190
C        4.26509664       4.87115309       0.53658793      12.01100000       0.00177013       0.00051265      -0.00057042
C       -0.06696902       1.08129938      13.12948817      12.01100000       0.00021769       0.00007967      -0.00063462
C        3.96930131       5.20792111      -0.79293406      12.01100000      -0.00199228       0.00103552       0.00017659
C       -1.02080389       0.85168417      14.11626895      12.01100000       0.00128418      -0.00005860      -0.00096904
C        4.93700263       5.08913654      -1.78561603      12.01100000       0.00101744       0.00003730      -0.00223980
C       -2.31306940       0.42351366      13.78536380      12.01100000       0.00225915       0.00009363      -0.00106543
C        6.22819773       4.63619181      -1.48517344      12.01100000      -0.00149772       0.00050942      -0.00018559
C       -2.60516856       0.18380096      12.43168877      12.01100000       0.00172642       0.00066093      -0.00147962
C        6.50582971       4.25844781      -0.16043957      12.01100000       0.00071154      -0.00029764      -0.00128473
C       -1.65711308       0.40642266      11.44526447      12.01100000       0.00133841       0.00147914      -0.00149841
C        5.54514072       4.37292116       0.83220010      12.01100000      -0.00198774       0.00079990      -0.00031134
C        4.37357382       2.00949017       5.49591044      12.01100000      -0.00066128      -0.00061564       0.00126786
C       -0.50804370       5.28600662       6.88847525      12.01100000      -0.00145430      -0.00068341       0.00063171
C       -3.36950106       0.26819397      14.83747210      12.01100000       0.00110240       0.00063768      -0.00065116
C        7.29762601       4.59961169      -2.53460723      12.01100000      -0.00016291       0.00090000      -0.00087285
H        4.72882049       0.88180975       7.97444103       1.00800000       0.00135042       0.00145248      -0.00031947
H       -0.84197958       4.37646766       4.31463264       1.00800000      -0.00203662      -0.00250086      -0.00140941
H        3.01290970       0.43232287       9.69334914       1.00800000      -0.00295232      -0.00176580       0.00254148
H        0.88820660       4.14236917       2.55745592       1.00800000       0.00079603      -0.00186416       0.00488144
H        0.00137986       2.13565697       7.16066787       1.00800000      -0.00174054      -0.00048599      -0.00043309
H        3.83596312       5.74410105       5.22785245       1.00800000       0.00029334      -0.00041182       0.00013783
H        1.71218915       2.58719389       5.42472155       1.00800000       0.00383603       0.00302923       0.00150940
H        2.11516789       5.97871740       6.99554692       1.00800000      -0.00111025      -0.00120450      -0.00143402
H        1.60067217       1.52103330      11.11868280       1.00800000       0.00227487      -0.00150732       0.00152180
H        2.27162506       5.41694543       1.23292090       1.00800000       0.00224051      -0.00274603      -0.00074823
H        0.92874605       1.42886797      13.40421243       1.00800000       0.00011740       0.00067278      -0.00077792
H        2.97444971       5.57653068      -1.04192389       1.00800000       0.00048449       0.00139561      -0.00196867
H       -0.76374228       1.01026500      15.16347358       1.00800000      -0.00041617       0.00037517       0.00018382
H        4.69314036       5.35938732      -2.81286158       1.00800000       0.00044226      -0.00040923      -0.00211238
H       -3.59537340      -0.18463532      12.16022205       1.00800000       0.00179876       0.00099031      -0.00070248
H        7.49549840       3.86961395       0.08274131       1.00800000      -0.00155356      -0.00123037       0.00146544
H       -1.88453656       0.23055109      10.39575231       1.00800000      -0.00072487       0.00130485      -0.00128999
H        5.76223706       4.09262553       1.86109384       1.00800000      -0.00040540       0.00092116      -0.00058243
H        3.98872025       2.67189683       4.71144754       1.00800000       0.00018799      -0.00179019      -0.00003999
H       -1.50860107       5.00018401       6.54478586       1.00800000      -0.00228904       0.00036071       0.00057667
H        5.28484448       2.46754596       5.90202215       1.00800000      -0.00029783       0.00137536      -0.00100293
H       -0.24491140       4.62127790       7.72435088       1.00800000       0.00035525      -0.00157733      -0.00088954
H        4.67911408       1.06741490       5.01900197       1.00800000       0.00105279      -0.00018248       0.00100351
H       -0.55696618       6.30289479       7.30155989       1.00800000      -0.00181018      -0.00011425      -0.00145608
H       -4.05814054      -0.55473112      14.60652369       1.00800000       0.00171494      -0.00142660       0.00269704
H        6.87181419       4.48882229      -3.53795224       1.00800000       0.00001972       0.00226456      -0.00112597
H       -2.92923447       0.08749274      15.82450041       1.00800000       0.00084949       0.00152862      -0.00069953
H        7.87348729       5.53861043      -2.52360525       1.00800000      -0.00038190       0.00078359       0.00118275
H       -3.97314463       1.18682337      14.90929071       1.00800000       0.00163532       0.00080952      -0.00059710
H        8.00752621       3.77988019      -2.36557617       1.00800000       0.00000147       0.00098905      -0.00291328
62
Lattice="6.002337274778228 0.08856323601584098 -0.4859026452948727 -0.19118669069268734 7.3112911465744395 0.600096402139467 -1.8683226593550402 -0.3343701006608963 13.367170289072833" Properties=species:S:1:pos:R:3:masses:R:1:forces:R:3 energy=-6112.548691861123 label=1091 n_visit=1 phase=1 pbc="T T T"
N        0.51309905       1.34568609      10.64746195      14.00700000       0.00089882       0.00132664      -0.00078384
N        3.45197465       5.22248114       2.79095730      14.00700000      -0.00082240       0.00083361       0.00115460
C        2.74776834       1.86924644       7.08045810      12.01100000      -0.00082427      -0.00066055       0.00083723
C        1.19369250       5.04048344       6.36848398      12.01100000       0.00028683      -0.00123129      -0.00104560
C        3.29664972       2.26393041       8.30867676      12.01100000       0.00017420      -0.00012148      -0.00059059
C        0.65921120       4.56587520       5.16519248      12.01100000      -0.00018263       0.00059523       0.00020804
C        2.59767444       2.12065949       9.50108993      12.01100000       0.00157977       0.00005992       0.00130632
C        1.36756737       4.66138464       3.97009843      12.01100000      -0.00026525       0.00025758      -0.00242980
C        1.30251920       1.57210434       9.50799505      12.01100000       0.00092409       0.00054764      -0.00063438
C        2.65492709       5.22138904       3.94117580      12.01100000      -0.00051104       0.00002565       0.00082414
C        0.75451152       1.16660348       8.27836642      12.01100000      -0.00081246      -0.00138021       0.00126549
C        3.19448402       5.70641724       5.14592222      12.01100000       0.00142232       0.00046498      -0.00138362
C        1.46050599       1.31627870       7.09042258      12.01100000      -0.00074542      -0.00098053       0.00061016
C        2.46661669       5.63101526       6.32710295      12.01100000      -0.00122274      -0.00015899      -0.00020279
C        0.88207190       1.75576624      11.81433205      12.01100000      -0.00060758      -0.00093068      -0.00010202
C        2.94397419       5.51589497       1.64379825      12.01100000      -0.00009953       0.00106177       0.00031922
C        0.11636165       1.45086677      13.01438919      12.01100000      -0.00004737      -0.00091363       0.00124552
C        3.71964324       5.43172463       0.41073737      12.01100000      -0.00206228       0.00020820       0.00078956
C        0.67105705       1.74037196      14.27250245      12.01100000       0.00052026      -0.00005115      -0.00038550
C        3.21574872       5.99835736      -0.76975463      12.01100000       0.00163948      -0.00037449      -0.00094084
C       -0.01389332       1.42614029      15.43984501      12.01100000      -0.00055150      -0.00039828       0.00088897
C        3.98230215       6.01729215      -1.93027117      12.01100000      -0.00343101       0.00168784       0.00149822
C       -1.28369647       0.83375329      15.39325261      12.01100000       0.00108996      -0.00070985      -0.00044435
C        5.27008950       5.46632705      -1.95418345      12.01100000       0.00100419       0.00057861      -0.00087597
C       -1.83813262       0.55557643      14.13323943      12.01100000      -0.00150699      -0.00135793       0.00195695
C        5.74437842       4.84222799      -0.78804047      12.01100000      -0.00221244       0.00080899       0.00087655
C       -1.15236922       0.84851772      12.96320058      12.01100000       0.00095869      -0.00047035       0.00093728
C        4.98658599       4.82690924       0.37376643      12.01100000       0.00124293      -0.00056659      -0.00352821
C        3.50741575       2.03813973       5.79829612      12.01100000       0.00023044      -0.00015289       0.00072551
C        0.45867569       4.88416012       7.66770889      12.01100000      -0.00098167       0.00124419      -0.00045591
C       -2.02006460       0.49644571      16.65634893      12.01100000       0.00141566       0.00003967      -0.00082621
C        6.13066109       5.58010968      -3.17835391      12.01100000      -0.00053278      -0.00012096       0.00078687
H        4.30363163       2.67981701       8.33334800       1.00800000      -0.00056669       0.00095071      -0.00029477
H       -0.33131456       4.11033716       5.15724423       1.00800000       0.00104963      -0.00123005      -0.00037687
H        3.07601946       2.42673469      10.42941096       1.00800000       0.00134266       0.00064480       0.00058738
H        0.94655513       4.25536730       3.05336219       1.00800000       0.00022820       0.00059067      -0.00138439
H       -0.24270175       0.72766620       8.28652988       1.00800000      -0.00150160      -0.00105302       0.00135637
H        4.19319335       6.14034596       5.13352428       1.00800000       0.00110346      -0.00143991      -0.00092759
H        1.01413086       0.98577315       6.15221882       1.00800000      -0.00088160      -0.00169553       0.00130331
H        2.89847996       6.02948781       7.24609008       1.00800000       0.00069245      -0.00171331      -0.00193335
H        1.80598182       2.33366888      11.98430359       1.00800000      -0.00090281      -0.00034703      -0.00075148
H        1.90783109       5.88410989       1.54588513       1.00800000       0.00031994       0.00357761      -0.00156589
H        1.65199307       2.21157707      14.32490885       1.00800000      -0.00036694      -0.00174511       0.00149032
H        2.22860723       6.45782655      -0.76456791       1.00800000      -0.00035582       0.00179489       0.00174302
H        0.43730489       1.65216866      16.40570675       1.00800000       0.00104090      -0.00177100       0.00023020
H        3.58389668       6.48814146      -2.82866263       1.00800000      -0.00159699       0.00182623      -0.00050234
H       -2.82281658       0.09450080      14.07638024       1.00800000       0.00074365      -0.00307469      -0.00008440
H        6.72481276       4.36684254      -0.79759948       1.00800000       0.00138700      -0.00040786       0.00025348
H       -1.58802464       0.62047310      11.99145865       1.00800000       0.00208405      -0.00028348       0.00285861
H        5.36300829       4.35515503       1.27901430       1.00800000      -0.00159254       0.00138293      -0.00125502
H        3.13201107       2.90555746       5.23668273       1.00800000       0.00068900      -0.00065042      -0.00067848
H       -0.59786460       4.63965252       7.50409975       1.00800000      -0.00069035       0.00113042      -0.00131310
H        4.57548106       2.20360492       5.98409665       1.00800000       0.00041035       0.00026161      -0.00038350
H        0.89765576       4.07435711       8.26877332       1.00800000      -0.00232175       0.00109873       0.00042460
H        3.39833564       1.15637832       5.15303590       1.00800000       0.00171540       0.00171479      -0.00138612
H        0.51403893       5.80008981       8.27050316       1.00800000      -0.00280908       0.00117412      -0.00018528
H       -1.98273619       1.32905111      17.37247175       1.00800000       0.00023443       0.00068421      -0.00244992
H        5.53952343       5.46130503      -4.09469152       1.00800000       0.00096863       0.00066900       0.00004147
H       -3.06878648       0.25037446      16.45606082       1.00800000       0.00174370      -0.00166657       0.00368963
H        6.60423531       6.57465389      -3.21928952       1.00800000       0.00081993      -0.00094085      -0.00259189
H       -1.56583024      -0.37908755      17.14460794       1.00800000       0.00126981       0.00175172       0.00255269
H        6.93367605       4.83303576      -3.18201401       1.00800000      -0.00040176      -0.00013820      -0.00024472
62
Lattice="6.905832135042773 -0.5986201194092303 -0.3983708932107966 1.0311216857470347 6.831683813214508 0.38481678865116486 2.8346712879076295 1.9784701647738632 12.093725362911302" Properties=species:S:1:pos:R:3:masses:R:1:forces:R:3 energy=-6112.5419152690565 label=1029 n_visit=1 phase=1 pbc="T T T"
N        2.49153518       2.90709644       2.68603143      14.00700000       0.00010891      -0.00029026       0.00045625
N        7.99359703       5.35347792       9.37986315      14.00700000       0.00079740      -0.00040996      -0.00020366
C        3.27025593       5.57279195       5.88637836      12.01100000      -0.00033949      -0.00046009      -0.00046784
C        6.82960260       2.71071263       6.28699250      12.01100000       0.00024326       0.00031790      -0.00030479
C        2.99284289       6.08230249       4.60974662      12.01100000      -0.00048951      -0.00038882      -0.00028191
C        7.37964368       2.20769619       7.47213571      12.01100000      -0.00028212       0.00054050       0.00056176
C        2.70298272       5.24144686       3.53929902      12.01100000      -0.00022036       0.00038022      -0.00014801
C        7.74794724       3.05377810       8.51425776      12.01100000      -0.00187673      -0.00033661      -0.00112551
C        2.69066691       3.84651968       3.70778766      12.01100000       0.00012115       0.00039796      -0.00001646
C        7.57994552       4.44215147       8.39944740      12.01100000      -0.00092121      -0.00007799      -0.00039166
C        2.97887284       3.33794076       4.98443378      12.01100000       0.00043504       0.00034608       0.00015454
C        7.04335644       4.95176524       7.20595258      12.01100000       0.00004843       0.00006180      -0.00049298
C        3.25187027       4.18149953       6.05004983      12.01100000       0.00016581      -0.00056193       0.00042234
C        6.66076297       4.09879881       6.18066106      12.01100000       0.00097225       0.00117580       0.00007443
C        2.00588970       3.24174071       1.53802816      12.01100000       0.00012620      -0.00109827       0.00041307
C        7.90871076       5.04837749      10.63001737      12.01100000       0.00152186      -0.00037257      -0.00148553
C        1.92287943       2.28890384       0.43865106      12.01100000       0.00011746      -0.00050300      -0.00016793
C        8.39884956       5.93478568      11.67826415      12.01100000       0.00073866      -0.00070183      -0.00065317
C        1.49515635       2.71527364      -0.82833850      12.01100000       0.00032542       0.00103056      -0.00017068
C        8.17805210       5.61279376      13.02597651      12.01100000      -0.00028093      -0.00016463      -0.00077325
C        1.42841522       1.82173878      -1.89277484      12.01100000      -0.00047625       0.00093826      -0.00057735
C        8.58261035       6.48027086      14.03618808      12.01100000      -0.00117763       0.00028291      -0.00060494
C        1.77023862       0.47311993      -1.72873209      12.01100000      -0.00024572       0.00021564       0.00050704
C        9.22511910       7.68942251      13.73721602      12.01100000      -0.00081734      -0.00015761      -0.00002405
C        2.21619771       0.05545119      -0.46313521      12.01100000      -0.00024869      -0.00065101       0.00002065
C        9.49165499       7.98120781      12.38879179      12.01100000      -0.00149365      -0.00011794      -0.00023902
C        2.30000719       0.94401266       0.59718700      12.01100000       0.00067945      -0.00146938       0.00023750
C        9.08431627       7.12400671      11.37793726      12.01100000      -0.00051482      -0.00035412      -0.00049035
C        3.60093456       6.46919541       7.04353719      12.01100000      -0.00018377       0.00012893      -0.00107374
C        6.45323786       1.80677809       5.14920027      12.01100000       0.00093893       0.00045504       0.00329105
C        1.63857520      -0.50595758      -2.85713979      12.01100000      -0.00011048       0.00080830       0.00017524
C        9.58327227       8.66305303      14.81976597      12.01100000       0.00049763      -0.00042665       0.00031212
H        3.01609982       7.16117402       4.44104296       1.00800000      -0.00042362       0.00016451      -0.00001758
H        7.52908080       1.13198635       7.58283960       1.00800000      -0.00331122       0.00102545      -0.00281462
H        2.51012616       5.67408918       2.55985383       1.00800000      -0.00086508       0.00025612       0.00002048
H        8.20530773       2.64740758       9.41415875       1.00800000      -0.00275293      -0.00033808      -0.00162613
H        2.98116215       2.25692321       5.11260082       1.00800000       0.00071601       0.00059453      -0.00089060
H        6.93757454       6.03099891       7.10337838       1.00800000       0.00045315      -0.00010472       0.00005775
H        3.45750138       3.75370991       7.03049745       1.00800000       0.00061537      -0.00021710       0.00104268
H        6.23941369       4.51815010       5.26726318       1.00800000       0.00083883      -0.00195859       0.00056645
H        1.64320439       4.25932032       1.31526287       1.00800000       0.00052648      -0.00061244       0.00086760
H        7.42969758       4.11342664      10.96803431       1.00800000       0.00135589      -0.00032672      -0.00024708
H        1.22019836       3.75915950      -0.97486565       1.00800000       0.00110009       0.00151845      -0.00042011
H        7.66697343       4.68477022      13.27999779       1.00800000       0.00085957       0.00028578       0.00125238
H        1.10278269       2.17769571      -2.86969333       1.00800000       0.00056074       0.00068109      -0.00076253
H        8.38033006       6.22187200      15.07509437       1.00800000       0.00070297       0.00184551      -0.00075056
H        2.51177373      -0.98400503      -0.31899544       1.00800000      -0.00018706      -0.00144243      -0.00004767
H       10.02430103       8.90019255      12.14002650       1.00800000      -0.00218048      -0.00043574       0.00098943
H        2.66149913       0.61982306       1.57091219       1.00800000       0.00053138      -0.00103811       0.00067990